HEADER
"PSFversion" "1.00"
"simulator" "spectre"
"version" "23.1.0.063"
"date" "8:18:46 PM, Sat Jun 6, 2026"
"design" "(no title)"
"analysis type" "sp"
"analysis name" "sp1"
"analysis description" "S-Parameter Analysis `sp1': freq = (1 GHz -> 100 GHz)"
"xVecSorted" "ascending"
"tolerance.relative" 0.00100000
"mode" "ss"
"number of ports" 2
"P1:r" 50.0000
"P1:num" 1
"P1:units" "Ohm"
"P2:r" 50.0000
"P2:num" 2
"P2:units" "Ohm"
TYPE
"sweep" FLOAT DOUBLE PROP(
"key" "sweep"
)
"S-Param" COMPLEX DOUBLE PROP(
"key" "SP"
)
SWEEP
"freq" "sweep" PROP(
"sweep_direction" 0
"units" "Hz"
)
TRACE
"s11" "S-Param"
"s21" "S-Param"
"s12" "S-Param"
"s22" "S-Param"
VALUE
"freq" 1.00000e+09
"s11" (0.00214441 0.000743640)
"s21" (0.997694 -0.00353551)
"s12" (0.997694 -0.00353550)
"s22" (0.00214439 0.000743630)
"freq" 1.33000e+09
"s11" (0.00210912 0.000998505)
"s21" (0.997609 -0.00468873)
"s12" (0.997609 -0.00468874)
"s22" (0.00210915 0.000998504)
"freq" 1.66000e+09
"s11" (0.00206094 0.00126082)
"s21" (0.997508 -0.00583235)
"s12" (0.997508 -0.00583237)
"s22" (0.00206103 0.00126082)
"freq" 1.99000e+09
"s11" (0.00200200 0.00153183)
"s21" (0.997392 -0.00696484)
"s12" (0.997392 -0.00696488)
"s22" (0.00200214 0.00153185)
"freq" 2.32000e+09
"s11" (0.00193480 0.00181401)
"s21" (0.997262 -0.00808352)
"s12" (0.997262 -0.00808355)
"s22" (0.00193495 0.00181402)
"freq" 2.65000e+09
"s11" (0.00186079 0.00210660)
"s21" (0.997121 -0.00918897)
"s12" (0.997121 -0.00918900)
"s22" (0.00186093 0.00210659)
"freq" 2.98000e+09
"s11" (0.00178176 0.00240992)
"s21" (0.996970 -0.0102807)
"s12" (0.996970 -0.0102807)
"s22" (0.00178190 0.00240989)
"freq" 3.31000e+09
"s11" (0.00170007 0.00272526)
"s21" (0.996812 -0.0113569)
"s12" (0.996812 -0.0113569)
"s22" (0.00170028 0.00272520)
"freq" 3.64000e+09
"s11" (0.00161663 0.00305146)
"s21" (0.996647 -0.0124190)
"s12" (0.996648 -0.0124190)
"s22" (0.00161693 0.00305138)
"freq" 3.97000e+09
"s11" (0.00153282 0.00338812)
"s21" (0.996479 -0.0134675)
"s12" (0.996479 -0.0134675)
"s22" (0.00153321 0.00338800)
"freq" 4.30000e+09
"s11" (0.00145100 0.00373535)
"s21" (0.996308 -0.0145020)
"s12" (0.996308 -0.0145020)
"s22" (0.00145146 0.00373521)
"freq" 4.63000e+09
"s11" (0.00137102 0.00409206)
"s21" (0.996135 -0.0155239)
"s12" (0.996135 -0.0155239)
"s22" (0.00137154 0.00409188)
"freq" 4.96000e+09
"s11" (0.00129341 0.00445747)
"s21" (0.995961 -0.0165341)
"s12" (0.995961 -0.0165341)
"s22" (0.00129399 0.00445726)
"freq" 5.29000e+09
"s11" (0.00122146 0.00483035)
"s21" (0.995790 -0.0175339)
"s12" (0.995790 -0.0175339)
"s22" (0.00122210 0.00483011)
"freq" 5.62000e+09
"s11" (0.00115406 0.00521032)
"s21" (0.995621 -0.0185238)
"s12" (0.995621 -0.0185237)
"s22" (0.00115477 0.00521005)
"freq" 5.95000e+09
"s11" (0.00109105 0.00559682)
"s21" (0.995454 -0.0195043)
"s12" (0.995454 -0.0195043)
"s22" (0.00109182 0.00559652)
"freq" 6.28000e+09
"s11" (0.00103250 0.00598923)
"s21" (0.995289 -0.0204763)
"s12" (0.995289 -0.0204763)
"s22" (0.00103334 0.00598890)
"freq" 6.61000e+09
"s11" (0.000978486 0.00638694)
"s21" (0.995125 -0.0214404)
"s12" (0.995125 -0.0214404)
"s22" (0.000979395 0.00638658)
"freq" 6.94000e+09
"s11" (0.000929094 0.00678934)
"s21" (0.994964 -0.0223973)
"s12" (0.994964 -0.0223973)
"s22" (0.000930077 0.00678895)
"freq" 7.27000e+09
"s11" (0.000884405 0.00719581)
"s21" (0.994806 -0.0233477)
"s12" (0.994806 -0.0233478)
"s22" (0.000885464 0.00719538)
"freq" 7.60000e+09
"s11" (0.000844497 0.00760574)
"s21" (0.994650 -0.0242925)
"s12" (0.994650 -0.0242925)
"s22" (0.000845637 0.00760528)
"freq" 7.93000e+09
"s11" (0.000809453 0.00801851)
"s21" (0.994498 -0.0252321)
"s12" (0.994498 -0.0252321)
"s22" (0.000810679 0.00801801)
"freq" 8.26000e+09
"s11" (0.000780754 0.00843160)
"s21" (0.994351 -0.0261698)
"s12" (0.994351 -0.0261698)
"s22" (0.000782077 0.00843106)
"freq" 8.59000e+09
"s11" (0.000757085 0.00884631)
"s21" (0.994208 -0.0271037)
"s12" (0.994208 -0.0271038)
"s22" (0.000758512 0.00884573)
"freq" 8.92000e+09
"s11" (0.000737970 0.00926277)
"s21" (0.994067 -0.0280339)
"s12" (0.994067 -0.0280339)
"s22" (0.000739503 0.00926215)
"freq" 9.25000e+09
"s11" (0.000723263 0.00968069)
"s21" (0.993929 -0.0289606)
"s12" (0.993929 -0.0289606)
"s22" (0.000724906 0.00968002)
"freq" 9.58000e+09
"s11" (0.000712840 0.0100997)
"s21" (0.993794 -0.0298841)
"s12" (0.993794 -0.0298842)
"s22" (0.000714595 0.0100990)
"freq" 9.91000e+09
"s11" (0.000706577 0.0105195)
"s21" (0.993661 -0.0308050)
"s12" (0.993661 -0.0308050)
"s22" (0.000708445 0.0105188)
"freq" 1.02400e+10
"s11" (0.000704552 0.0109383)
"s21" (0.993530 -0.0317252)
"s12" (0.993530 -0.0317252)
"s22" (0.000706531 0.0109375)
"freq" 1.05700e+10
"s11" (0.000706509 0.0113566)
"s21" (0.993402 -0.0326441)
"s12" (0.993402 -0.0326441)
"s22" (0.000708597 0.0113558)
"freq" 1.09000e+10
"s11" (0.000712237 0.0117749)
"s21" (0.993276 -0.0335612)
"s12" (0.993276 -0.0335612)
"s22" (0.000714435 0.0117740)
"freq" 1.12300e+10
"s11" (0.000721580 0.0121929)
"s21" (0.993151 -0.0344766)
"s12" (0.993151 -0.0344766)
"s22" (0.000723888 0.0121920)
"freq" 1.15600e+10
"s11" (0.000734382 0.0126107)
"s21" (0.993029 -0.0353904)
"s12" (0.993029 -0.0353904)
"s22" (0.000736803 0.0126097)
"freq" 1.18900e+10
"s11" (0.000750493 0.0130279)
"s21" (0.992908 -0.0363028)
"s12" (0.992908 -0.0363028)
"s22" (0.000753027 0.0130269)
"freq" 1.22200e+10
"s11" (0.000769758 0.0134447)
"s21" (0.992789 -0.0372138)
"s12" (0.992789 -0.0372138)
"s22" (0.000772407 0.0134436)
"freq" 1.25500e+10
"s11" (0.000792024 0.0138607)
"s21" (0.992671 -0.0381237)
"s12" (0.992671 -0.0381237)
"s22" (0.000794790 0.0138595)
"freq" 1.28800e+10
"s11" (0.000817138 0.0142758)
"s21" (0.992555 -0.0390324)
"s12" (0.992555 -0.0390324)
"s22" (0.000820023 0.0142747)
"freq" 1.32100e+10
"s11" (0.000844465 0.0146888)
"s21" (0.992439 -0.0399405)
"s12" (0.992439 -0.0399405)
"s22" (0.000847468 0.0146876)
"freq" 1.35400e+10
"s11" (0.000874146 0.0151001)
"s21" (0.992324 -0.0408478)
"s12" (0.992324 -0.0408478)
"s22" (0.000877271 0.0150989)
"freq" 1.38700e+10
"s11" (0.000906282 0.0155104)
"s21" (0.992210 -0.0417543)
"s12" (0.992210 -0.0417543)
"s22" (0.000909531 0.0155091)
"freq" 1.42000e+10
"s11" (0.000940794 0.0159198)
"s21" (0.992097 -0.0426601)
"s12" (0.992097 -0.0426601)
"s22" (0.000944169 0.0159185)
"freq" 1.45300e+10
"s11" (0.000977582 0.0163283)
"s21" (0.991985 -0.0435654)
"s12" (0.991985 -0.0435653)
"s22" (0.000981087 0.0163269)
"freq" 1.48600e+10
"s11" (0.00101655 0.0167359)
"s21" (0.991874 -0.0444701)
"s12" (0.991874 -0.0444700)
"s22" (0.00102019 0.0167345)
"freq" 1.51900e+10
"s11" (0.00105759 0.0171426)
"s21" (0.991763 -0.0453743)
"s12" (0.991763 -0.0453743)
"s22" (0.00106136 0.0171411)
"freq" 1.55200e+10
"s11" (0.00110061 0.0175485)
"s21" (0.991653 -0.0462782)
"s12" (0.991653 -0.0462781)
"s22" (0.00110452 0.0175469)
"freq" 1.58500e+10
"s11" (0.00114551 0.0179535)
"s21" (0.991543 -0.0471818)
"s12" (0.991543 -0.0471818)
"s22" (0.00114957 0.0179519)
"freq" 1.61800e+10
"s11" (0.00119174 0.0183578)
"s21" (0.991433 -0.0480859)
"s12" (0.991433 -0.0480859)
"s22" (0.00119595 0.0183562)
"freq" 1.65100e+10
"s11" (0.00123941 0.0187615)
"s21" (0.991324 -0.0489904)
"s12" (0.991324 -0.0489903)
"s22" (0.00124378 0.0187598)
"freq" 1.68400e+10
"s11" (0.00128870 0.0191644)
"s21" (0.991214 -0.0498947)
"s12" (0.991215 -0.0498946)
"s22" (0.00129324 0.0191626)
"freq" 1.71700e+10
"s11" (0.00133962 0.0195664)
"s21" (0.991105 -0.0507989)
"s12" (0.991105 -0.0507989)
"s22" (0.00134432 0.0195646)
"freq" 1.75000e+10
"s11" (0.00139210 0.0199677)
"s21" (0.990996 -0.0517030)
"s12" (0.990997 -0.0517029)
"s22" (0.00139698 0.0199658)
"freq" 1.78300e+10
"s11" (0.00144612 0.0203681)
"s21" (0.990888 -0.0526069)
"s12" (0.990888 -0.0526068)
"s22" (0.00145117 0.0203662)
"freq" 1.81600e+10
"s11" (0.00150161 0.0207677)
"s21" (0.990779 -0.0535106)
"s12" (0.990779 -0.0535106)
"s22" (0.00150685 0.0207658)
"freq" 1.84900e+10
"s11" (0.00155855 0.0211666)
"s21" (0.990670 -0.0544143)
"s12" (0.990670 -0.0544143)
"s22" (0.00156397 0.0211645)
"freq" 1.88200e+10
"s11" (0.00161687 0.0215646)
"s21" (0.990562 -0.0553178)
"s12" (0.990562 -0.0553178)
"s22" (0.00162248 0.0215625)
"freq" 1.91500e+10
"s11" (0.00167613 0.0219617)
"s21" (0.990452 -0.0562212)
"s12" (0.990452 -0.0562211)
"s22" (0.00168192 0.0219595)
"freq" 1.94800e+10
"s11" (0.00173631 0.0223578)
"s21" (0.990343 -0.0571244)
"s12" (0.990343 -0.0571244)
"s22" (0.00174230 0.0223556)
"freq" 1.98100e+10
"s11" (0.00179766 0.0227530)
"s21" (0.990233 -0.0580276)
"s12" (0.990233 -0.0580276)
"s22" (0.00180383 0.0227508)
"freq" 2.01400e+10
"s11" (0.00186020 0.0231475)
"s21" (0.990122 -0.0589306)
"s12" (0.990122 -0.0589306)
"s22" (0.00186657 0.0231452)
"freq" 2.04700e+10
"s11" (0.00192392 0.0235412)
"s21" (0.990012 -0.0598335)
"s12" (0.990012 -0.0598335)
"s22" (0.00193049 0.0235388)
"freq" 2.08000e+10
"s11" (0.00198880 0.0239340)
"s21" (0.989901 -0.0607362)
"s12" (0.989901 -0.0607362)
"s22" (0.00199557 0.0239316)
"freq" 2.11300e+10
"s11" (0.00205483 0.0243261)
"s21" (0.989790 -0.0616388)
"s12" (0.989790 -0.0616388)
"s22" (0.00206180 0.0243236)
"freq" 2.14600e+10
"s11" (0.00212199 0.0247174)
"s21" (0.989679 -0.0625413)
"s12" (0.989679 -0.0625413)
"s22" (0.00212917 0.0247149)
"freq" 2.17900e+10
"s11" (0.00219026 0.0251080)
"s21" (0.989567 -0.0634436)
"s12" (0.989567 -0.0634436)
"s22" (0.00219764 0.0251053)
"freq" 2.21200e+10
"s11" (0.00225963 0.0254977)
"s21" (0.989455 -0.0643458)
"s12" (0.989455 -0.0643458)
"s22" (0.00226722 0.0254951)
"freq" 2.24500e+10
"s11" (0.00233007 0.0258868)
"s21" (0.989343 -0.0652478)
"s12" (0.989343 -0.0652478)
"s22" (0.00233788 0.0258841)
"freq" 2.27800e+10
"s11" (0.00240158 0.0262751)
"s21" (0.989230 -0.0661497)
"s12" (0.989230 -0.0661497)
"s22" (0.00240961 0.0262723)
"freq" 2.31100e+10
"s11" (0.00247413 0.0266627)
"s21" (0.989117 -0.0670515)
"s12" (0.989117 -0.0670515)
"s22" (0.00248238 0.0266598)
"freq" 2.34400e+10
"s11" (0.00254772 0.0270496)
"s21" (0.989003 -0.0679531)
"s12" (0.989003 -0.0679531)
"s22" (0.00255618 0.0270466)
"freq" 2.37700e+10
"s11" (0.00262231 0.0274357)
"s21" (0.988889 -0.0688546)
"s12" (0.988889 -0.0688546)
"s22" (0.00263100 0.0274328)
"freq" 2.41000e+10
"s11" (0.00269790 0.0278212)
"s21" (0.988775 -0.0697559)
"s12" (0.988775 -0.0697559)
"s22" (0.00270682 0.0278182)
"freq" 2.44300e+10
"s11" (0.00277447 0.0282060)
"s21" (0.988660 -0.0706571)
"s12" (0.988660 -0.0706571)
"s22" (0.00278362 0.0282029)
"freq" 2.47600e+10
"s11" (0.00285200 0.0285901)
"s21" (0.988544 -0.0715581)
"s12" (0.988544 -0.0715581)
"s22" (0.00286138 0.0285869)
"freq" 2.50900e+10
"s11" (0.00292995 0.0289738)
"s21" (0.988428 -0.0724590)
"s12" (0.988428 -0.0724590)
"s22" (0.00293956 0.0289705)
"freq" 2.54200e+10
"s11" (0.00300813 0.0293571)
"s21" (0.988310 -0.0733597)
"s12" (0.988310 -0.0733597)
"s22" (0.00301799 0.0293538)
"freq" 2.57500e+10
"s11" (0.00308701 0.0297398)
"s21" (0.988191 -0.0742603)
"s12" (0.988191 -0.0742603)
"s22" (0.00309711 0.0297364)
"freq" 2.60800e+10
"s11" (0.00316674 0.0301220)
"s21" (0.988072 -0.0751607)
"s12" (0.988072 -0.0751607)
"s22" (0.00317708 0.0301185)
"freq" 2.64100e+10
"s11" (0.00324731 0.0305035)
"s21" (0.987952 -0.0760610)
"s12" (0.987952 -0.0760610)
"s22" (0.00325791 0.0305000)
"freq" 2.67400e+10
"s11" (0.00332872 0.0308844)
"s21" (0.987831 -0.0769611)
"s12" (0.987831 -0.0769611)
"s22" (0.00333957 0.0308808)
"freq" 2.70700e+10
"s11" (0.00341097 0.0312647)
"s21" (0.987710 -0.0778611)
"s12" (0.987710 -0.0778611)
"s22" (0.00342207 0.0312610)
"freq" 2.74000e+10
"s11" (0.00349405 0.0316445)
"s21" (0.987588 -0.0787609)
"s12" (0.987588 -0.0787609)
"s22" (0.00350541 0.0316407)
"freq" 2.77300e+10
"s11" (0.00357795 0.0320236)
"s21" (0.987465 -0.0796606)
"s12" (0.987465 -0.0796605)
"s22" (0.00358957 0.0320198)
"freq" 2.80600e+10
"s11" (0.00366267 0.0324021)
"s21" (0.987342 -0.0805600)
"s12" (0.987342 -0.0805600)
"s22" (0.00367456 0.0323982)
"freq" 2.83900e+10
"s11" (0.00374821 0.0327801)
"s21" (0.987218 -0.0814594)
"s12" (0.987218 -0.0814594)
"s22" (0.00376037 0.0327761)
"freq" 2.87200e+10
"s11" (0.00383456 0.0331575)
"s21" (0.987094 -0.0823585)
"s12" (0.987094 -0.0823585)
"s22" (0.00384699 0.0331534)
"freq" 2.90500e+10
"s11" (0.00392172 0.0335343)
"s21" (0.986969 -0.0832576)
"s12" (0.986969 -0.0832576)
"s22" (0.00393442 0.0335302)
"freq" 2.93800e+10
"s11" (0.00400968 0.0339106)
"s21" (0.986843 -0.0841564)
"s12" (0.986843 -0.0841564)
"s22" (0.00402265 0.0339063)
"freq" 2.97100e+10
"s11" (0.00409844 0.0342863)
"s21" (0.986716 -0.0850551)
"s12" (0.986716 -0.0850551)
"s22" (0.00411169 0.0342819)
"freq" 3.00400e+10
"s11" (0.00418799 0.0346614)
"s21" (0.986589 -0.0859536)
"s12" (0.986589 -0.0859536)
"s22" (0.00420152 0.0346570)
"freq" 3.03700e+10
"s11" (0.00427833 0.0350360)
"s21" (0.986461 -0.0868519)
"s12" (0.986461 -0.0868519)
"s22" (0.00429214 0.0350315)
"freq" 3.07000e+10
"s11" (0.00436945 0.0354100)
"s21" (0.986333 -0.0877501)
"s12" (0.986333 -0.0877501)
"s22" (0.00438355 0.0354055)
"freq" 3.10300e+10
"s11" (0.00446135 0.0357836)
"s21" (0.986203 -0.0886481)
"s12" (0.986203 -0.0886481)
"s22" (0.00447574 0.0357789)
"freq" 3.13600e+10
"s11" (0.00455402 0.0361565)
"s21" (0.986074 -0.0895460)
"s12" (0.986074 -0.0895460)
"s22" (0.00456871 0.0361518)
"freq" 3.16900e+10
"s11" (0.00464746 0.0365290)
"s21" (0.985943 -0.0904436)
"s12" (0.985943 -0.0904436)
"s22" (0.00466245 0.0365241)
"freq" 3.20200e+10
"s11" (0.00474167 0.0369009)
"s21" (0.985812 -0.0913411)
"s12" (0.985812 -0.0913411)
"s22" (0.00475695 0.0368959)
"freq" 3.23500e+10
"s11" (0.00483664 0.0372723)
"s21" (0.985680 -0.0922384)
"s12" (0.985680 -0.0922384)
"s22" (0.00485222 0.0372672)
"freq" 3.26800e+10
"s11" (0.00493236 0.0376432)
"s21" (0.985547 -0.0931356)
"s12" (0.985547 -0.0931356)
"s22" (0.00494825 0.0376380)
"freq" 3.30100e+10
"s11" (0.00502883 0.0380135)
"s21" (0.985413 -0.0940326)
"s12" (0.985414 -0.0940325)
"s22" (0.00504502 0.0380083)
"freq" 3.33400e+10
"s11" (0.00512604 0.0383834)
"s21" (0.985279 -0.0949294)
"s12" (0.985279 -0.0949293)
"s22" (0.00514255 0.0383781)
"freq" 3.36700e+10
"s11" (0.00522400 0.0387528)
"s21" (0.985144 -0.0958260)
"s12" (0.985145 -0.0958260)
"s22" (0.00524082 0.0387473)
"freq" 3.40000e+10
"s11" (0.00532270 0.0391216)
"s21" (0.985009 -0.0967224)
"s12" (0.985009 -0.0967224)
"s22" (0.00533983 0.0391161)
"freq" 3.43300e+10
"s11" (0.00542212 0.0394900)
"s21" (0.984873 -0.0976187)
"s12" (0.984873 -0.0976186)
"s22" (0.00543957 0.0394844)
"freq" 3.46600e+10
"s11" (0.00552227 0.0398579)
"s21" (0.984736 -0.0985147)
"s12" (0.984736 -0.0985147)
"s22" (0.00554005 0.0398522)
"freq" 3.49900e+10
"s11" (0.00562315 0.0402253)
"s21" (0.984598 -0.0994106)
"s12" (0.984598 -0.0994106)
"s22" (0.00564125 0.0402195)
"freq" 3.53200e+10
"s11" (0.00572474 0.0405923)
"s21" (0.984459 -0.100306)
"s12" (0.984459 -0.100306)
"s22" (0.00574316 0.0405863)
"freq" 3.56500e+10
"s11" (0.00582704 0.0409587)
"s21" (0.984320 -0.101202)
"s12" (0.984320 -0.101202)
"s22" (0.00584580 0.0409527)
"freq" 3.59800e+10
"s11" (0.00593005 0.0413247)
"s21" (0.984180 -0.102097)
"s12" (0.984180 -0.102097)
"s22" (0.00594914 0.0413186)
"freq" 3.63100e+10
"s11" (0.00603376 0.0416903)
"s21" (0.984039 -0.102992)
"s12" (0.984039 -0.102992)
"s22" (0.00605319 0.0416840)
"freq" 3.66400e+10
"s11" (0.00613817 0.0420554)
"s21" (0.983898 -0.103887)
"s12" (0.983898 -0.103887)
"s22" (0.00615794 0.0420490)
"freq" 3.69700e+10
"s11" (0.00624295 0.0424203)
"s21" (0.983755 -0.104782)
"s12" (0.983755 -0.104782)
"s22" (0.00626306 0.0424138)
"freq" 3.73000e+10
"s11" (0.00634733 0.0427857)
"s21" (0.983611 -0.105676)
"s12" (0.983611 -0.105676)
"s22" (0.00636778 0.0427792)
"freq" 3.76300e+10
"s11" (0.00645185 0.0431512)
"s21" (0.983466 -0.106571)
"s12" (0.983466 -0.106571)
"s22" (0.00647265 0.0431445)
"freq" 3.79600e+10
"s11" (0.00655700 0.0435162)
"s21" (0.983320 -0.107465)
"s12" (0.983320 -0.107464)
"s22" (0.00657815 0.0435095)
"freq" 3.82900e+10
"s11" (0.00666280 0.0438809)
"s21" (0.983173 -0.108358)
"s12" (0.983173 -0.108358)
"s22" (0.00668429 0.0438740)
"freq" 3.86200e+10
"s11" (0.00676923 0.0442452)
"s21" (0.983026 -0.109252)
"s12" (0.983026 -0.109252)
"s22" (0.00679108 0.0442382)
"freq" 3.89500e+10
"s11" (0.00687630 0.0446090)
"s21" (0.982877 -0.110145)
"s12" (0.982877 -0.110145)
"s22" (0.00689851 0.0446019)
"freq" 3.92800e+10
"s11" (0.00698400 0.0449725)
"s21" (0.982728 -0.111038)
"s12" (0.982728 -0.111038)
"s22" (0.00700657 0.0449653)
"freq" 3.96100e+10
"s11" (0.00709235 0.0453356)
"s21" (0.982578 -0.111931)
"s12" (0.982578 -0.111931)
"s22" (0.00711528 0.0453283)
"freq" 3.99400e+10
"s11" (0.00720133 0.0456983)
"s21" (0.982428 -0.112824)
"s12" (0.982428 -0.112824)
"s22" (0.00722463 0.0456909)
"freq" 4.02700e+10
"s11" (0.00731094 0.0460606)
"s21" (0.982276 -0.113717)
"s12" (0.982276 -0.113717)
"s22" (0.00733461 0.0460530)
"freq" 4.06000e+10
"s11" (0.00742120 0.0464225)
"s21" (0.982124 -0.114609)
"s12" (0.982124 -0.114609)
"s22" (0.00744523 0.0464148)
"freq" 4.09300e+10
"s11" (0.00753208 0.0467840)
"s21" (0.981970 -0.115501)
"s12" (0.981970 -0.115501)
"s22" (0.00755650 0.0467762)
"freq" 4.12600e+10
"s11" (0.00764361 0.0471451)
"s21" (0.981816 -0.116393)
"s12" (0.981816 -0.116393)
"s22" (0.00766840 0.0471372)
"freq" 4.15900e+10
"s11" (0.00775577 0.0475059)
"s21" (0.981662 -0.117285)
"s12" (0.981662 -0.117285)
"s22" (0.00778094 0.0474979)
"freq" 4.19200e+10
"s11" (0.00786857 0.0478662)
"s21" (0.981506 -0.118176)
"s12" (0.981506 -0.118176)
"s22" (0.00789412 0.0478581)
"freq" 4.22500e+10
"s11" (0.00798200 0.0482262)
"s21" (0.981349 -0.119068)
"s12" (0.981349 -0.119068)
"s22" (0.00800794 0.0482179)
"freq" 4.25800e+10
"s11" (0.00809607 0.0485858)
"s21" (0.981192 -0.119959)
"s12" (0.981192 -0.119959)
"s22" (0.00812239 0.0485774)
"freq" 4.29100e+10
"s11" (0.00821077 0.0489450)
"s21" (0.981034 -0.120850)
"s12" (0.981034 -0.120850)
"s22" (0.00823748 0.0489365)
"freq" 4.32400e+10
"s11" (0.00832610 0.0493038)
"s21" (0.980875 -0.121740)
"s12" (0.980875 -0.121740)
"s22" (0.00835321 0.0492952)
"freq" 4.35700e+10
"s11" (0.00844208 0.0496623)
"s21" (0.980715 -0.122631)
"s12" (0.980715 -0.122631)
"s22" (0.00846958 0.0496535)
"freq" 4.39000e+10
"s11" (0.00855868 0.0500203)
"s21" (0.980555 -0.123521)
"s12" (0.980555 -0.123521)
"s22" (0.00858659 0.0500114)
"freq" 4.42300e+10
"s11" (0.00867592 0.0503780)
"s21" (0.980393 -0.124411)
"s12" (0.980393 -0.124411)
"s22" (0.00870423 0.0503690)
"freq" 4.45600e+10
"s11" (0.00879379 0.0507353)
"s21" (0.980231 -0.125301)
"s12" (0.980231 -0.125301)
"s22" (0.00882250 0.0507262)
"freq" 4.48900e+10
"s11" (0.00891230 0.0510923)
"s21" (0.980068 -0.126191)
"s12" (0.980068 -0.126191)
"s22" (0.00894142 0.0510830)
"freq" 4.52200e+10
"s11" (0.00903144 0.0514488)
"s21" (0.979904 -0.127080)
"s12" (0.979904 -0.127080)
"s22" (0.00906097 0.0514394)
"freq" 4.55500e+10
"s11" (0.00915121 0.0518050)
"s21" (0.979739 -0.127969)
"s12" (0.979739 -0.127969)
"s22" (0.00918115 0.0517954)
"freq" 4.58800e+10
"s11" (0.00927162 0.0521608)
"s21" (0.979574 -0.128858)
"s12" (0.979574 -0.128858)
"s22" (0.00930197 0.0521511)
"freq" 4.62100e+10
"s11" (0.00939266 0.0525163)
"s21" (0.979407 -0.129747)
"s12" (0.979408 -0.129747)
"s22" (0.00942343 0.0525064)
"freq" 4.65400e+10
"s11" (0.00951433 0.0528713)
"s21" (0.979240 -0.130636)
"s12" (0.979240 -0.130636)
"s22" (0.00954552 0.0528614)
"freq" 4.68700e+10
"s11" (0.00963663 0.0532260)
"s21" (0.979072 -0.131524)
"s12" (0.979072 -0.131524)
"s22" (0.00966825 0.0532159)
"freq" 4.72000e+10
"s11" (0.00975956 0.0535804)
"s21" (0.978903 -0.132412)
"s12" (0.978903 -0.132412)
"s22" (0.00979161 0.0535701)
"freq" 4.75300e+10
"s11" (0.00988313 0.0539343)
"s21" (0.978734 -0.133300)
"s12" (0.978734 -0.133300)
"s22" (0.00991561 0.0539239)
"freq" 4.78600e+10
"s11" (0.0100073 0.0542879)
"s21" (0.978563 -0.134188)
"s12" (0.978563 -0.134188)
"s22" (0.0100402 0.0542774)
"freq" 4.81900e+10
"s11" (0.0101322 0.0546412)
"s21" (0.978392 -0.135076)
"s12" (0.978392 -0.135076)
"s22" (0.0101655 0.0546305)
"freq" 4.85200e+10
"s11" (0.0102576 0.0549941)
"s21" (0.978219 -0.135963)
"s12" (0.978219 -0.135963)
"s22" (0.0102914 0.0549832)
"freq" 4.88500e+10
"s11" (0.0103837 0.0553466)
"s21" (0.978046 -0.136850)
"s12" (0.978046 -0.136850)
"s22" (0.0104179 0.0553356)
"freq" 4.91800e+10
"s11" (0.0105104 0.0556987)
"s21" (0.977872 -0.137737)
"s12" (0.977872 -0.137737)
"s22" (0.0105451 0.0556875)
"freq" 4.95100e+10
"s11" (0.0106378 0.0560505)
"s21" (0.977698 -0.138624)
"s12" (0.977698 -0.138623)
"s22" (0.0106729 0.0560392)
"freq" 4.98400e+10
"s11" (0.0107658 0.0564019)
"s21" (0.977522 -0.139510)
"s12" (0.977522 -0.139510)
"s22" (0.0108013 0.0563904)
"freq" 5.01700e+10
"s11" (0.0108944 0.0567530)
"s21" (0.977345 -0.140396)
"s12" (0.977345 -0.140396)
"s22" (0.0109304 0.0567414)
"freq" 5.05000e+10
"s11" (0.0110236 0.0571037)
"s21" (0.977168 -0.141282)
"s12" (0.977168 -0.141282)
"s22" (0.0110601 0.0570919)
"freq" 5.08300e+10
"s11" (0.0111535 0.0574541)
"s21" (0.976990 -0.142168)
"s12" (0.976990 -0.142168)
"s22" (0.0111904 0.0574421)
"freq" 5.11600e+10
"s11" (0.0112840 0.0578041)
"s21" (0.976811 -0.143053)
"s12" (0.976811 -0.143053)
"s22" (0.0113214 0.0577920)
"freq" 5.14900e+10
"s11" (0.0114151 0.0581537)
"s21" (0.976631 -0.143939)
"s12" (0.976631 -0.143939)
"s22" (0.0114530 0.0581414)
"freq" 5.18200e+10
"s11" (0.0115469 0.0585030)
"s21" (0.976450 -0.144824)
"s12" (0.976450 -0.144824)
"s22" (0.0115852 0.0584906)
"freq" 5.21500e+10
"s11" (0.0116793 0.0588519)
"s21" (0.976269 -0.145709)
"s12" (0.976269 -0.145709)
"s22" (0.0117181 0.0588393)
"freq" 5.24800e+10
"s11" (0.0118123 0.0592005)
"s21" (0.976086 -0.146593)
"s12" (0.976086 -0.146593)
"s22" (0.0118515 0.0591878)
"freq" 5.28100e+10
"s11" (0.0119459 0.0595488)
"s21" (0.975903 -0.147478)
"s12" (0.975903 -0.147478)
"s22" (0.0119857 0.0595358)
"freq" 5.31400e+10
"s11" (0.0120802 0.0598967)
"s21" (0.975719 -0.148362)
"s12" (0.975719 -0.148362)
"s22" (0.0121204 0.0598836)
"freq" 5.34700e+10
"s11" (0.0122151 0.0602442)
"s21" (0.975534 -0.149246)
"s12" (0.975534 -0.149246)
"s22" (0.0122558 0.0602309)
"freq" 5.38000e+10
"s11" (0.0123506 0.0605914)
"s21" (0.975348 -0.150130)
"s12" (0.975348 -0.150130)
"s22" (0.0123918 0.0605780)
"freq" 5.41300e+10
"s11" (0.0124868 0.0609383)
"s21" (0.975161 -0.151013)
"s12" (0.975161 -0.151013)
"s22" (0.0125284 0.0609246)
"freq" 5.44600e+10
"s11" (0.0126236 0.0612848)
"s21" (0.974973 -0.151897)
"s12" (0.974973 -0.151897)
"s22" (0.0126657 0.0612710)
"freq" 5.47900e+10
"s11" (0.0127610 0.0616310)
"s21" (0.974785 -0.152780)
"s12" (0.974785 -0.152780)
"s22" (0.0128036 0.0616170)
"freq" 5.51200e+10
"s11" (0.0128990 0.0619768)
"s21" (0.974596 -0.153662)
"s12" (0.974596 -0.153662)
"s22" (0.0129421 0.0619626)
"freq" 5.54500e+10
"s11" (0.0130377 0.0623223)
"s21" (0.974405 -0.154545)
"s12" (0.974405 -0.154545)
"s22" (0.0130813 0.0623079)
"freq" 5.57800e+10
"s11" (0.0131770 0.0626674)
"s21" (0.974214 -0.155427)
"s12" (0.974214 -0.155427)
"s22" (0.0132211 0.0626529)
"freq" 5.61100e+10
"s11" (0.0133169 0.0630122)
"s21" (0.974022 -0.156310)
"s12" (0.974022 -0.156310)
"s22" (0.0133615 0.0629975)
"freq" 5.64400e+10
"s11" (0.0134574 0.0633567)
"s21" (0.973829 -0.157191)
"s12" (0.973829 -0.157191)
"s22" (0.0135025 0.0633418)
"freq" 5.67700e+10
"s11" (0.0135986 0.0637008)
"s21" (0.973636 -0.158073)
"s12" (0.973636 -0.158073)
"s22" (0.0136442 0.0636857)
"freq" 5.71000e+10
"s11" (0.0137404 0.0640446)
"s21" (0.973441 -0.158955)
"s12" (0.973441 -0.158955)
"s22" (0.0137865 0.0640293)
"freq" 5.74300e+10
"s11" (0.0138828 0.0643881)
"s21" (0.973246 -0.159836)
"s12" (0.973246 -0.159836)
"s22" (0.0139294 0.0643726)
"freq" 5.77600e+10
"s11" (0.0140258 0.0647312)
"s21" (0.973049 -0.160717)
"s12" (0.973049 -0.160717)
"s22" (0.0140730 0.0647155)
"freq" 5.80900e+10
"s11" (0.0141695 0.0650740)
"s21" (0.972852 -0.161598)
"s12" (0.972852 -0.161597)
"s22" (0.0142172 0.0650582)
"freq" 5.84200e+10
"s11" (0.0143138 0.0654165)
"s21" (0.972654 -0.162478)
"s12" (0.972654 -0.162478)
"s22" (0.0143620 0.0654004)
"freq" 5.87500e+10
"s11" (0.0144587 0.0657587)
"s21" (0.972455 -0.163358)
"s12" (0.972455 -0.163358)
"s22" (0.0145074 0.0657424)
"freq" 5.90800e+10
"s11" (0.0146042 0.0661005)
"s21" (0.972255 -0.164238)
"s12" (0.972255 -0.164238)
"s22" (0.0146535 0.0660840)
"freq" 5.94100e+10
"s11" (0.0147504 0.0664420)
"s21" (0.972055 -0.165118)
"s12" (0.972055 -0.165118)
"s22" (0.0148002 0.0664253)
"freq" 5.97400e+10
"s11" (0.0148972 0.0667831)
"s21" (0.971853 -0.165998)
"s12" (0.971853 -0.165998)
"s22" (0.0149475 0.0667662)
"freq" 6.00700e+10
"s11" (0.0150446 0.0671239)
"s21" (0.971650 -0.166877)
"s12" (0.971650 -0.166877)
"s22" (0.0150955 0.0671068)
"freq" 6.04000e+10
"s11" (0.0151926 0.0674645)
"s21" (0.971447 -0.167756)
"s12" (0.971447 -0.167756)
"s22" (0.0152440 0.0674471)
"freq" 6.07300e+10
"s11" (0.0153413 0.0678046)
"s21" (0.971243 -0.168635)
"s12" (0.971243 -0.168635)
"s22" (0.0153932 0.0677871)
"freq" 6.10600e+10
"s11" (0.0154906 0.0681445)
"s21" (0.971038 -0.169514)
"s12" (0.971038 -0.169513)
"s22" (0.0155430 0.0681267)
"freq" 6.13900e+10
"s11" (0.0156405 0.0684841)
"s21" (0.970832 -0.170392)
"s12" (0.970832 -0.170392)
"s22" (0.0156935 0.0684661)
"freq" 6.17200e+10
"s11" (0.0157910 0.0688233)
"s21" (0.970625 -0.171270)
"s12" (0.970625 -0.171270)
"s22" (0.0158446 0.0688051)
"freq" 6.20500e+10
"s11" (0.0159421 0.0691622)
"s21" (0.970417 -0.172148)
"s12" (0.970417 -0.172148)
"s22" (0.0159962 0.0691438)
"freq" 6.23800e+10
"s11" (0.0160939 0.0695008)
"s21" (0.970208 -0.173026)
"s12" (0.970208 -0.173026)
"s22" (0.0161486 0.0694821)
"freq" 6.27100e+10
"s11" (0.0162463 0.0698391)
"s21" (0.969998 -0.173903)
"s12" (0.969998 -0.173903)
"s22" (0.0163015 0.0698202)
"freq" 6.30400e+10
"s11" (0.0163993 0.0701770)
"s21" (0.969788 -0.174780)
"s12" (0.969788 -0.174780)
"s22" (0.0164551 0.0701579)
"freq" 6.33700e+10
"s11" (0.0165529 0.0705146)
"s21" (0.969576 -0.175657)
"s12" (0.969576 -0.175657)
"s22" (0.0166093 0.0704953)
"freq" 6.37000e+10
"s11" (0.0167072 0.0708520)
"s21" (0.969364 -0.176534)
"s12" (0.969364 -0.176534)
"s22" (0.0167641 0.0708324)
"freq" 6.40300e+10
"s11" (0.0168621 0.0711890)
"s21" (0.969151 -0.177410)
"s12" (0.969151 -0.177410)
"s22" (0.0169195 0.0711692)
"freq" 6.43600e+10
"s11" (0.0170176 0.0715257)
"s21" (0.968937 -0.178286)
"s12" (0.968937 -0.178286)
"s22" (0.0170756 0.0715057)
"freq" 6.46900e+10
"s11" (0.0171737 0.0718621)
"s21" (0.968722 -0.179162)
"s12" (0.968722 -0.179162)
"s22" (0.0172323 0.0718418)
"freq" 6.50200e+10
"s11" (0.0173304 0.0721982)
"s21" (0.968506 -0.180038)
"s12" (0.968506 -0.180038)
"s22" (0.0173896 0.0721777)
"freq" 6.53500e+10
"s11" (0.0174877 0.0725340)
"s21" (0.968289 -0.180913)
"s12" (0.968289 -0.180913)
"s22" (0.0175475 0.0725132)
"freq" 6.56800e+10
"s11" (0.0176457 0.0728694)
"s21" (0.968071 -0.181788)
"s12" (0.968071 -0.181788)
"s22" (0.0177061 0.0728485)
"freq" 6.60100e+10
"s11" (0.0178043 0.0732046)
"s21" (0.967853 -0.182663)
"s12" (0.967853 -0.182663)
"s22" (0.0178652 0.0731834)
"freq" 6.63400e+10
"s11" (0.0179635 0.0735395)
"s21" (0.967633 -0.183538)
"s12" (0.967633 -0.183538)
"s22" (0.0180250 0.0735180)
"freq" 6.66700e+10
"s11" (0.0181234 0.0738740)
"s21" (0.967413 -0.184413)
"s12" (0.967413 -0.184412)
"s22" (0.0181855 0.0738523)
"freq" 6.70000e+10
"s11" (0.0182838 0.0742083)
"s21" (0.967191 -0.185287)
"s12" (0.967191 -0.185287)
"s22" (0.0183465 0.0741863)
"freq" 6.73300e+10
"s11" (0.0184449 0.0745423)
"s21" (0.966969 -0.186161)
"s12" (0.966969 -0.186161)
"s22" (0.0185082 0.0745200)
"freq" 6.76600e+10
"s11" (0.0186066 0.0748759)
"s21" (0.966746 -0.187034)
"s12" (0.966746 -0.187034)
"s22" (0.0186704 0.0748534)
"freq" 6.79900e+10
"s11" (0.0187689 0.0752093)
"s21" (0.966522 -0.187908)
"s12" (0.966521 -0.187908)
"s22" (0.0188333 0.0751865)
"freq" 6.83200e+10
"s11" (0.0189318 0.0755423)
"s21" (0.966296 -0.188781)
"s12" (0.966296 -0.188781)
"s22" (0.0189969 0.0755193)
"freq" 6.86500e+10
"s11" (0.0190953 0.0758751)
"s21" (0.966071 -0.189654)
"s12" (0.966070 -0.189654)
"s22" (0.0191610 0.0758518)
"freq" 6.89800e+10
"s11" (0.0192595 0.0762076)
"s21" (0.965844 -0.190526)
"s12" (0.965844 -0.190526)
"s22" (0.0193258 0.0761840)
"freq" 6.93100e+10
"s11" (0.0194242 0.0765398)
"s21" (0.965616 -0.191399)
"s12" (0.965616 -0.191399)
"s22" (0.0194912 0.0765159)
"freq" 6.96400e+10
"s11" (0.0195896 0.0768716)
"s21" (0.965387 -0.192271)
"s12" (0.965387 -0.192271)
"s22" (0.0196572 0.0768475)
"freq" 6.99700e+10
"s11" (0.0197556 0.0772032)
"s21" (0.965157 -0.193143)
"s12" (0.965157 -0.193143)
"s22" (0.0198238 0.0771789)
"freq" 7.03000e+10
"s11" (0.0199223 0.0775345)
"s21" (0.964927 -0.194015)
"s12" (0.964927 -0.194015)
"s22" (0.0199910 0.0775099)
"freq" 7.06300e+10
"s11" (0.0200895 0.0778655)
"s21" (0.964695 -0.194886)
"s12" (0.964695 -0.194886)
"s22" (0.0201589 0.0778406)
"freq" 7.09600e+10
"s11" (0.0202574 0.0781963)
"s21" (0.964463 -0.195757)
"s12" (0.964463 -0.195757)
"s22" (0.0203274 0.0781711)
"freq" 7.12900e+10
"s11" (0.0204258 0.0785267)
"s21" (0.964230 -0.196628)
"s12" (0.964230 -0.196628)
"s22" (0.0204965 0.0785012)